<?xml version="1.0"?>
<VTKFile type="UnstructuredGrid"  version="0.1"  >
<UnstructuredGrid>
<Piece  NumberOfPoints="2" NumberOfCells="2">
<Points>
<DataArray  type="Float64"  NumberOfComponents="3"  format="ascii">0 0 0  0.999301 -0.0238887 0  </DataArray>
</Points>
<Cells>
<DataArray  type="UInt32"  Name="connectivity"  format="ascii">
0 0    1 1    </DataArray>
<DataArray  type="UInt32"  Name="offsets"  format="ascii">
2 4 </DataArray>
<DataArray  type="UInt32"  Name="types"  format="ascii">
1 1 </DataArray>
</Cells>
<PointData  Scalars=" smth ">
<DataArray  type="Float64"  Name="mass"  format="ascii">1 0 </DataArray >
<DataArray  type="Float64"  Name="velocity"  format="ascii">0 4.0041 </DataArray >
</PointData >
</Piece>
</UnstructuredGrid>
</VTKFile>
